LAMMPS data file via write_data, version 29 Oct 2020, timestep = 1000000000

440 atoms
3 atom types
459 bonds
1 bond types
398 angles
1 angle types

-376.4762489557769 -347.05831317494653 xlo xhi
699.8165061714578 736.8029632564002 ylo yhi
793.5058073144025 817.5942669229786 zlo zhi

Masses

1 1
2 1
3 1

Atoms # full

205 1 2 0.0 -364.8646172030217 731.2803575177559 794.5564916222824 0 0 0
206 1 2 0.0 -364.19528532445725 731.9570778162711 794.3543013098871 0 0 0
207 1 2 0.0 -363.4814312510688 732.5448032561815 794.1580193513269 0 0 0
208 1 2 0.0 -362.85609781309097 733.008974889819 793.5092091729306 0 0 0
204 1 2 0.0 -365.6738300347644 730.9258718914923 794.9533906998442 0 0 0
209 1 2 0.0 -362.8424109216828 733.64150318563 794.2036061517381 0 0 0
210 1 2 0.0 -362.76864437539086 734.1019067831816 795.0837613040134 0 0 0
203 1 2 0.0 -366.0370419678018 731.1235554420175 795.8539156063763 0 0 0
211 1 2 0.0 -362.98076799079337 733.9890067022513 795.9672289739992 0 0 0
202 1 2 0.0 -366.23651279620236 731.0707274737808 796.7689379949462 0 0 0
212 1 2 0.0 -363.34213457380474 734.1472468908132 796.8469953574252 0 0 0
201 1 2 0.0 -365.71709511385507 731.1311086196198 797.5276860251802 0 0 0
213 1 2 0.0 -364.19564659017317 733.9544906411303 797.3088944386809 0 0 0
200 1 2 0.0 -365.4566661872645 731.188305647436 798.4460057576114 0 0 0
425 1 3 0.0 -364.8139035968154 731.9146846161323 798.3600092127964 0 0 0
426 1 3 0.0 -364.0150760151426 732.4585016509824 798.1632667802161 0 0 0
214 1 2 0.0 -364.3607506180367 733.5626483931266 798.1603197808636 0 0 0
185 1 2 0.0 -359.59379941951204 736.5102754791454 798.8432853905615 0 0 0
188 1 2 0.0 -361.85452596686616 736.0941933009593 798.1736577874059 0 0 0
187 1 2 0.0 -361.1707033276383 736.6575598266093 797.7869788723551 0 0 0
186 1 2 0.0 -360.3740441229225 736.7993344158865 798.2603588220187 0 0 0
158 1 2 0.0 -365.8141400462917 721.8693511423107 799.6581928501566 0 0 0
161 1 2 0.0 -367.267407583684 723.7988605512285 799.2056423663687 0 0 0
424 1 3 0.0 -364.8875352230813 731.3851380726397 799.8623113229506 0 0 0
215 1 2 0.0 -364.22024572939074 733.0237756713515 798.9382365625905 0 0 0
421 1 3 0.0 -361.3007817706014 736.6108790579508 798.7879563783789 0 0 0
184 1 2 0.0 -359.964616519676 735.8643445072787 799.4505469338046 0 0 0
190 1 2 0.0 -362.63809384135396 736.547967774847 799.8263186669487 0 0 0
189 1 2 0.0 -362.5718273031517 736.3894014629196 798.8700209876841 0 0 0
156 1 2 0.0 -365.56985412608077 720.4970671719047 800.9359020884114 0 0 0
157 1 2 0.0 -365.69122407306503 721.3315172888704 800.4737681586906 0 0 0
159 1 2 0.0 -366.4040835837775 722.4553069545758 799.1444898984677 0 0 0
160 1 2 0.0 -367.0187503110998 723.0172964877657 798.7938917034628 0 0 0
162 1 2 0.0 -367.31775646088374 724.0791122833465 800.0811746219407 0 0 0
227 1 2 0.0 -365.04929596143796 724.8694614271968 800.0187536999173 0 0 0
226 1 2 0.0 -364.8679346992193 725.7629004900058 799.7823994096199 0 0 0
225 1 2 0.0 -364.23570913170124 726.2654647414155 799.2307649204148 0 0 0
224 1 2 0.0 -363.8129204623313 727.0699348565004 799.5605584837408 0 0 0
223 1 2 0.0 -362.9225750282995 727.3166670283774 799.7870046204667 0 0 0
222 1 2 0.0 -362.30210183199665 728.173529138952 799.797739137387 0 0 0
221 1 2 0.0 -361.8207090523318 728.8913246511387 799.3676661721717 0 0 0
220 1 2 0.0 -361.60252479300766 729.7814839668067 799.3807026077021 0 0 0
219 1 2 0.0 -361.9915910834612 730.6745275325011 799.2293252489899 0 0 0
199 1 2 0.0 -365.7139902733447 731.4038186561011 799.4020963252984 0 0 0
198 1 2 0.0 -365.9472784008874 731.9698247868341 800.1420516617684 0 0 0
428 1 3 0.0 -363.95861537799016 731.4937528585277 799.7378783177754 0 0 0
218 1 2 0.0 -362.4966263543071 731.5126829230107 799.4974531430854 0 0 0
217 1 2 0.0 -363.2430050378842 732.1062714704815 799.9139017948078 0 0 0
427 1 3 0.0 -365.0572661469215 732.4413557778828 799.6035327755645 0 0 0
423 1 3 0.0 -365.5195104239787 733.1324873071328 800.0771077594532 0 0 0
216 1 2 0.0 -364.12366498259803 732.5509148880485 799.7278830080328 0 0 0
420 1 3 0.0 -361.16080557644193 735.9045736449398 799.4949972628436 0 0 0
183 1 2 0.0 -360.57011946511113 735.2373594134949 799.8395206794454 0 0 0
191 1 2 0.0 -362.6375922810538 736.5386954529038 800.8164939609452 0 0 0
130 1 2 0.0 -366.2982005547937 717.8211799978985 801.0605786992674 0 0 0
155 1 2 0.0 -365.63493752651715 719.9670242648148 801.6716624311509 0 0 0
228 1 2 0.0 -365.2627218378219 723.9661854577201 800.3177392574677 0 0 0
163 1 2 0.0 -367.4225784283162 724.4527598015667 800.9714578613336 0 0 0
164 1 2 0.0 -367.5799720546641 725.1600708612789 801.62610587282 0 0 0
171 1 2 0.0 -368.2836690275322 731.1696043214104 800.3803021629782 0 0 0
172 1 2 0.0 -368.363029703623 731.8456673396153 801.0333371895545 0 0 0
173 1 2 0.0 -367.7304441678987 732.4685593404112 801.3293723816082 0 0 0
197 1 2 0.0 -366.16794661762265 732.719471824171 800.6558381315366 0 0 0
196 1 2 0.0 -365.8168564328122 733.5721423873281 800.9489091536672 0 0 0
181 1 2 0.0 -361.5337692228554 734.3554497795683 801.1753106544014 0 0 0
182 1 2 0.0 -360.91604580357506 734.696028549541 800.5411446348814 0 0 0
337 1 2 0.0 -370.1815682221515 711.5589185305969 801.4171484905793 0 0 0
336 1 2 0.0 -369.27761830959537 711.3881163603911 801.1690564283862 0 0 0
339 1 2 0.0 -371.03842406017503 713.120302307431 802.1138418586279 0 0 0
338 1 2 0.0 -370.73454644259516 712.3222856760642 801.7405500561014 0 0 0
121 1 2 0.0 -365.64731875607896 713.9110924396169 801.816628307396 0 0 0
120 1 2 0.0 -364.75855008294934 713.527330272971 801.821494542137 0 0 0
122 1 2 0.0 -366.2699047727808 714.1151012926662 801.0807294017283 0 0 0
123 1 2 0.0 -367.0628646763288 714.5224374677937 801.4638189916103 0 0 0
124 1 2 0.0 -367.55086470696267 715.3671502369641 801.6823964762705 0 0 0
414 1 3 0.0 -366.6228378404411 715.7255674449472 801.5507346879598 0 0 0
7 1 2 0.0 -350.6399745228132 715.861483732559 801.8670866169622 0 0 0
127 1 2 0.0 -368.67495571636823 717.6117086849193 802.2151267753089 0 0 0
131 1 2 0.0 -365.545868285705 717.6088980695713 801.5717005690875 0 0 0
9 1 2 0.0 -351.18365450968366 717.4501299663726 800.9825760992509 0 0 0
8 1 2 0.0 -350.80272681418916 716.6431024605223 801.3552242779631 0 0 0
128 1 2 0.0 -367.95778188861516 718.2146775401258 801.9370720455868 0 0 0
129 1 2 0.0 -367.1499241649289 718.1491569973986 801.3805646915376 0 0 0
10 1 2 0.0 -351.4600871159189 718.3724167198858 800.9565238675768 0 0 0
418 1 3 0.0 -366.46603326756457 719.8621164344321 801.164844149153 0 0 0
154 1 2 0.0 -365.55303434955334 719.3389672018416 802.3981614039299 0 0 0
11 1 2 0.0 -351.64665785137225 718.9728841721115 801.7054281185564 0 0 0
235 1 2 0.0 -369.07314492923285 720.2846684934332 802.501997979607 0 0 0
12 1 2 0.0 -352.3323336722007 719.519074288508 802.0478036143636 0 0 0
13 1 2 0.0 -353.0261214793934 720.1847658154024 802.1365145824698 0 0 0
230 1 2 0.0 -366.3260152365902 723.2318240332858 801.7506420838257 0 0 0
229 1 2 0.0 -365.7162046742016 723.5142549231396 801.0821846159764 0 0 0
165 1 2 0.0 -367.3399806182219 726.151270217281 801.7135274160144 0 0 0
169 1 2 0.0 -367.74395932354014 729.4974508240796 801.0263000874899 0 0 0
170 1 2 0.0 -367.96962299567537 730.2513114389234 800.4225792357171 0 0 0
174 1 2 0.0 -366.9204767395436 732.5916244136623 801.8743408546692 0 0 0
422 1 3 0.0 -365.9435236488406 733.6915920049755 801.9005670349551 0 0 0
180 1 2 0.0 -362.4384201337853 734.2631897233963 801.4007114072818 0 0 0
195 1 2 0.0 -365.33089668683124 734.4027010613913 801.0044400404012 0 0 0
194 1 2 0.0 -364.62627556855597 734.8219343381111 801.4278343413444 0 0 0
193 1 2 0.0 -363.9515878648519 735.4670070878875 801.5620839315168 0 0 0
192 1 2 0.0 -363.1357369512825 735.7759682496811 801.2313157938726 0 0 0
335 1 2 0.0 -368.80173652305916 711.4122671447017 802.0335441284367 0 0 0
340 1 2 0.0 -370.93929105675676 713.9807926761127 802.548478818003 0 0 0
341 1 2 0.0 -370.7466530244114 714.7676852947659 803.0744278027996 0 0 0
119 1 2 0.0 -363.9171313010317 713.3417007868534 802.2865914099199 0 0 0
413 1 3 0.0 -366.8695629753305 714.5653049261389 802.3966397775521 0 0 0
125 1 2 0.0 -368.1883608885271 716.0728327603063 801.4836381123239 0 0 0
6 1 2 0.0 -350.08976838244905 715.9017957233541 802.7137097025186 0 0 0
126 1 2 0.0 -368.7756489795945 716.7801726130918 801.8150820615496 0 0 0
416 1 3 0.0 -366.203903468798 716.548536453923 801.8700718329347 0 0 0
132 1 2 0.0 -365.53374266802126 716.95787639097 802.3023566860113 0 0 0
237 1 2 0.0 -369.3668607797862 718.717680591739 802.8457473791758 0 0 0
415 1 3 0.0 -366.89314733136246 719.0857125681697 801.5282023705338 0 0 0
153 1 2 0.0 -365.84310348547547 718.628069465509 802.9559751681392 0 0 0
236 1 2 0.0 -368.7334532919475 719.3611458947802 802.5426649406921 0 0 0
234 1 2 0.0 -368.6638718408093 721.1098019702479 802.7734363763591 0 0 0
14 1 2 0.0 -353.1724611614841 721.2062507495273 801.9990614905605 0 0 0
233 1 2 0.0 -367.9975608707108 721.80396462351 802.9536130340126 0 0 0
15 1 2 0.0 -352.9735822516573 721.9579802337795 802.6320217157283 0 0 0
232 1 2 0.0 -367.27554082086033 722.3042317425436 802.7896727061086 0 0 0
231 1 2 0.0 -366.4798894683262 722.8431171624607 802.6727794025801 0 0 0
166 1 2 0.0 -367.32574164208444 727.0300952464908 801.9610355225865 0 0 0
167 1 2 0.0 -367.19627482814116 727.996195922871 801.9849106056505 0 0 0
280 1 2 0.0 -370.39092317374 728.4362172746017 803.0385514638759 0 0 0
168 1 2 0.0 -367.4026342833454 728.8946043669976 801.6451576743796 0 0 0
279 1 2 0.0 -370.2030156493766 729.2450965987473 803.543787285552 0 0 0
175 1 2 0.0 -365.9956942729787 732.4188885247821 801.9725691305806 0 0 0
176 1 2 0.0 -365.1641104884904 732.0315355659516 802.0197149787847 0 0 0
177 1 2 0.0 -364.2526981417635 732.37136431838 801.8109561316103 0 0 0
178 1 2 0.0 -363.46013812682804 732.8758823017912 801.6322127061757 0 0 0
419 1 3 0.0 -365.27655374249014 733.0118751549935 802.0589541280506 0 0 0
179 1 2 0.0 -363.31180479750304 733.8276966961138 801.5683568269394 0 0 0
334 1 2 0.0 -368.2399136531415 711.3918849538577 802.8554102890926 0 0 0
342 1 2 0.0 -370.6793946358473 715.4340063101224 803.8723591226941 0 0 0
118 1 2 0.0 -363.17071931612116 713.5705538828674 802.8920834279404 0 0 0
117 1 2 0.0 -362.67441033001745 713.6616668801223 803.6867531436933 0 0 0
410 1 3 0.0 -366.5446311281218 715.2048149913231 803.0976114735735 0 0 0
5 1 2 0.0 -350.36336903252965 715.4437487237046 803.5643533250023 0 0 0
134 1 2 0.0 -366.489223004154 716.8689804422321 803.9898945553166 0 0 0
133 1 2 0.0 -365.9665700681115 716.8419076912456 803.1793058845157 0 0 0
238 1 2 0.0 -369.7454195156628 718.3226237822988 803.5761177423984 0 0 0
152 1 2 0.0 -365.8826426782852 718.669365261778 803.9098603484166 0 0 0
16 1 2 0.0 -352.7968782667619 722.5488410927122 803.387452565651 0 0 0
287 1 2 0.0 -370.2090963176836 723.714122949923 803.4166054654999 0 0 0
286 1 2 0.0 -369.77677596343193 724.5491293584952 803.3233909515498 0 0 0
285 1 2 0.0 -369.13137094732286 725.103087885921 802.9435499921963 0 0 0
284 1 2 0.0 -368.60632447593804 725.689888236821 802.3810501169056 0 0 0
283 1 2 0.0 -368.6013101501845 726.6063904220001 801.9893074842286 0 0 0
281 1 2 0.0 -369.77738397782247 727.8993043019872 802.4765800600604 0 0 0
278 1 2 0.0 -370.16634781522305 730.2340337352853 803.794787615368 0 0 0
333 1 2 0.0 -367.84077046372187 711.4637547191444 803.7237528881764 0 0 0
103 1 2 0.0 -366.6119121037784 713.3984112733409 804.148472390595 0 0 0
102 1 2 0.0 -366.54458095827613 714.0982916444568 803.4839481937431 0 0 0
101 1 2 0.0 -366.39718223281403 714.9459621107153 804.0460528585147 0 0 0
116 1 2 0.0 -362.3260990491865 714.3278411202318 804.3007061571783 0 0 0
343 1 2 0.0 -370.5521445101486 714.6710886721892 804.4041609629535 0 0 0
4 1 2 0.0 -350.1176474374689 715.0140100781139 804.3646985047607 0 0 0
135 1 2 0.0 -367.23220606161937 716.9929494584028 804.5915738422084 0 0 0
239 1 2 0.0 -369.69808853646646 718.39558435377 804.5365141102321 0 0 0
240 1 2 0.0 -368.965993787425 718.7325000892761 804.9311056465816 0 0 0
151 1 2 0.0 -365.58644970559874 719.0116325763588 804.8197382261103 0 0 0
288 1 2 0.0 -369.914427562985 723.5042054542312 804.2999752565472 0 0 0
17 1 2 0.0 -352.3508451122219 723.1666096805911 804.0130563747862 0 0 0
282 1 2 0.0 -369.3546129330367 727.1516973262811 802.0283863673351 0 0 0
277 1 2 0.0 -369.28583061796223 730.3266950876113 804.1070824877391 0 0 0
332 1 2 0.0 -367.66220577045834 711.726426965083 804.5950083500976 0 0 0
345 1 2 0.0 -369.7845363975699 712.9149324941432 804.7780964350242 0 0 0
104 1 2 0.0 -367.0007448699325 712.9692798780095 804.9988378813346 0 0 0
344 1 2 0.0 -369.83952150849484 713.8614294741476 804.4605537357286 0 0 0
409 1 3 0.0 -365.41280727134887 715.2861503553981 805.317223393079 0 0 0
115 1 2 0.0 -362.75098949792783 714.5015356346936 805.2077592539134 0 0 0
3 1 2 0.0 -349.49557615804827 714.6041411849048 804.9650476419363 0 0 0
137 1 2 0.0 -368.7094444521966 717.7357728915706 805.5375025941111 0 0 0
136 1 2 0.0 -368.11200780571687 717.5620135809118 804.7299455418996 0 0 0
150 1 2 0.0 -365.1834348969097 719.7732173906387 805.1809812692294 0 0 0
241 1 2 0.0 -368.5299336984715 719.6086456676913 805.149237835666 0 0 0
289 1 2 0.0 -369.5743432794534 722.9147417752044 804.9932381820535 0 0 0
18 1 2 0.0 -352.3122361008258 723.8108217895153 804.7022211843263 0 0 0
276 1 2 0.0 -368.67243050644583 730.454863726568 804.7996027127517 0 0 0
347 1 2 0.0 -369.2567155857663 711.1892607313385 805.0133493259318 0 0 0
346 1 2 0.0 -369.254912381178 712.0834738392746 804.6208799807597 0 0 0
331 1 2 0.0 -367.86376386350366 712.2538016028996 805.411766804541 0 0 0
435 1 3 0.0 -367.79172985955665 712.8456239599046 806.1598096359395 0 0 0
411 1 3 0.0 -367.7152636376184 713.5951811616795 805.5396118941328 0 0 0
105 1 2 0.0 -366.75938849492786 713.4159213653246 805.8407123396437 0 0 0
412 1 3 0.0 -365.8109932799578 714.5712860900118 805.8564950377486 0 0 0
100 1 2 0.0 -366.18072401976747 715.4344400416188 804.8212477728197 0 0 0
114 1 2 0.0 -363.01450302533664 714.1602390985623 806.1543485887593 0 0 0
2 1 2 0.0 -350.166246574926 714.2298228964482 805.5639618074205 0 0 0
138 1 2 0.0 -368.9241198226769 718.1180019641802 806.4380990795415 0 0 0
417 1 3 0.0 -367.3892113911715 718.7263063622759 805.9095443154102 0 0 0
429 1 3 0.0 -367.5871506383858 719.4103420117411 805.298740724722 0 0 0
149 1 2 0.0 -364.6415498093339 720.296700837155 805.7101587474668 0 0 0
242 1 2 0.0 -368.81980199177235 720.5807911102827 805.4887717388274 0 0 0
244 1 2 0.0 -370.6000909672294 721.1500360961361 805.3134524265107 0 0 0
243 1 2 0.0 -369.72575179217375 720.7548031570946 805.339633348401 0 0 0
431 1 3 0.0 -369.03810385287414 721.1284184079664 806.2949721093034 0 0 0
245 1 2 0.0 -371.43449473155135 721.517769848515 805.6124324163179 0 0 0
290 1 2 0.0 -369.18495876884094 722.5317992682386 805.7907350182807 0 0 0
19 1 2 0.0 -352.29292037413796 724.0638477503909 805.6252770873655 0 0 0
275 1 2 0.0 -368.59237005966804 730.1160083502928 805.703333287246 0 0 0
351 1 2 0.0 -370.84989295451675 708.2135594950107 806.9004833844962 0 0 0
350 1 2 0.0 -370.3864725736597 709.0636076272668 806.5912974759093 0 0 0
349 1 2 0.0 -370.0001633171871 709.8353160694828 806.1707057925114 0 0 0
348 1 2 0.0 -369.50204805616374 710.3882040681997 805.6586414684496 0 0 0
330 1 2 0.0 -368.03007873094293 711.6379224511231 806.0919480715737 0 0 0
106 1 2 0.0 -366.14923982062743 713.8223270994137 806.4670534973574 0 0 0
1 1 2 0.0 -350.7104462761709 714.3095871242581 806.373543121411 0 0 0
99 1 2 0.0 -365.9220731421404 716.0974585703427 805.5646136483549 0 0 0
113 1 2 0.0 -363.1332884047375 714.1916814654778 807.0700395913968 0 0 0
139 1 2 0.0 -368.3496862208494 718.7291904797122 806.9611711718295 0 0 0
140 1 2 0.0 -367.40735271092746 718.4823171097622 806.9578232942636 0 0 0
141 1 2 0.0 -366.6344579683395 718.3819942374816 806.4255210342042 0 0 0
142 1 2 0.0 -365.83629592514893 717.8450977488274 806.0348716932948 0 0 0
148 1 2 0.0 -364.19981655324517 720.2545935457114 806.6160492985872 0 0 0
430 1 3 0.0 -368.55005821272243 721.531715354751 805.517521768907 0 0 0
291 1 2 0.0 -368.8447955438025 722.0273890152586 806.616101012331 0 0 0
292 1 2 0.0 -368.4653813372366 721.6787109722682 807.382396960566 0 0 0
246 1 2 0.0 -371.7491555901601 722.3750269022339 805.9913321748671 0 0 0
247 1 2 0.0 -372.1849574815865 723.1368579364771 806.3787409399262 0 0 0
20 1 2 0.0 -352.7549899463529 724.4334506241041 806.4033396129588 0 0 0
248 1 2 0.0 -372.4172398425181 723.8413607128679 806.9518207099666 0 0 0
249 1 2 0.0 -372.68721518815454 724.7281110700872 807.3475315695594 0 0 0
274 1 2 0.0 -368.5344642177925 729.2885032335166 806.1434354659601 0 0 0
355 1 2 0.0 -373.13699622771236 705.5653180117499 807.6558892527041 0 0 0
354 1 2 0.0 -372.5847265192158 706.0061273388214 806.953288664667 0 0 0
353 1 2 0.0 -371.97032032121103 706.7489583739224 806.8284194786669 0 0 0
352 1 2 0.0 -371.4743391818489 707.5286859310058 807.025514640245 0 0 0
328 1 2 0.0 -369.57578909918186 711.2277173735821 807.0498281561356 0 0 0
329 1 2 0.0 -368.8028381169555 711.2936942825892 806.4960639942797 0 0 0
107 1 2 0.0 -365.5336273270616 714.3239676817248 807.1806402064794 0 0 0
112 1 2 0.0 -363.15907597576006 714.2243420727381 808.0350198379468 0 0 0
98 1 2 0.0 -366.10646195010736 715.9069383118183 806.5307782956091 0 0 0
97 1 2 0.0 -365.8014130140499 715.8989017786363 807.4293940659209 0 0 0
143 1 2 0.0 -364.880107932579 718.1248892397676 805.9634741498978 0 0 0
144 1 2 0.0 -364.0273482939298 718.3222346158951 805.7444644712423 0 0 0
145 1 2 0.0 -363.4078466898068 718.6345572798689 806.3879170044113 0 0 0
146 1 2 0.0 -362.88206992794585 719.2102063272647 806.9228148167797 0 0 0
147 1 2 0.0 -363.3409109259185 720.0062081768496 807.0092579490638 0 0 0
21 1 2 0.0 -353.2939962097123 724.6054830869865 807.231189601475 0 0 0
250 1 2 0.0 -372.3044868093176 725.6207348228537 807.3605595657594 0 0 0
251 1 2 0.0 -372.1102847234103 726.576059227616 807.5209032553239 0 0 0
271 1 2 0.0 -368.9277933314703 727.0609359400881 807.5381655535177 0 0 0
252 1 2 0.0 -372.21470749741155 726.637628252159 808.4851022297835 0 0 0
272 1 2 0.0 -368.7112779952227 727.9780118343987 807.5177965643484 0 0 0
273 1 2 0.0 -368.4646594771575 728.9118965234059 807.1189764109155 0 0 0
356 1 2 0.0 -373.5404930572583 704.7572281880642 807.9590152974072 0 0 0
364 1 2 0.0 -374.2311078012936 705.9314641457099 808.4778050279564 0 0 0
365 1 2 0.0 -374.8838543099214 706.4034178683958 808.0140574533991 0 0 0
366 1 2 0.0 -374.4821275867014 707.2480540862862 808.2114021743099 0 0 0
370 1 2 0.0 -371.8376462064572 707.6980075175478 808.7858296384728 0 0 0
367 1 2 0.0 -373.62985365287716 707.6743326644612 808.1871113626296 0 0 0
369 1 2 0.0 -371.8663310585392 707.0593135810037 808.0916406533379 0 0 0
368 1 2 0.0 -372.6702446458805 707.6249102080767 808.0762212558767 0 0 0
326 1 2 0.0 -370.86478999399486 710.655083220494 808.3030004121332 0 0 0
327 1 2 0.0 -370.36891814691154 711.1166876829859 807.6430767424769 0 0 0
108 1 2 0.0 -364.9421038899935 714.3598960013238 807.9397268276496 0 0 0
111 1 2 0.0 -363.208702658304 714.1728307430138 809.0154212397292 0 0 0
96 1 2 0.0 -365.6207634913205 716.1744182485729 808.2819153653211 0 0 0
293 1 2 0.0 -367.837065889445 721.6157234623984 808.1226219917111 0 0 0
261 1 2 0.0 -375.8539895499517 723.2622038706863 808.3036100129857 0 0 0
266 1 2 0.0 -371.721752668024 724.1331085060974 808.8972952619101 0 0 0
267 1 2 0.0 -371.06806938146855 724.8180953395862 808.968612083355 0 0 0
22 1 2 0.0 -353.7603765489682 724.2454775489595 808.0081462771795 0 0 0
73 1 2 0.0 -350.9786308985392 724.4453525585698 808.1764860287753 0 0 0
268 1 2 0.0 -370.3499369271169 725.3732076852135 808.5289061194875 0 0 0
269 1 2 0.0 -369.620659894649 725.3922757020265 807.8597895499909 0 0 0
72 1 2 0.0 -350.3227509220104 725.0517940497665 807.7868239092047 0 0 0
71 1 2 0.0 -349.6003643450407 725.705960599953 807.8022503654468 0 0 0
70 1 2 0.0 -348.8056798607986 725.8139052407083 808.3996085581665 0 0 0
270 1 2 0.0 -369.17485270668686 726.1795686850901 807.5529139357681 0 0 0
253 1 2 0.0 -372.510782372091 727.5231958991342 808.6843062959936 0 0 0
357 1 2 0.0 -373.54621606134225 703.8910689795665 808.3326149687759 0 0 0
363 1 2 0.0 -373.6771727764769 705.9930804689076 809.2793483874997 0 0 0
325 1 2 0.0 -370.97783788612503 710.5649984522339 809.2130016800396 0 0 0
109 1 2 0.0 -364.7440255614016 714.3869353815478 808.9047900165173 0 0 0
110 1 2 0.0 -363.9859171107878 714.4637584146977 809.5891793440377 0 0 0
95 1 2 0.0 -365.10757257653194 716.7733440183877 808.8568655263116 0 0 0
94 1 2 0.0 -364.253274581636 716.9015119323789 809.3081183053081 0 0 0
294 1 2 0.0 -367.3186123883673 721.4802726832838 809.0019365982293 0 0 0
263 1 2 0.0 -374.0628328020534 723.2152251964267 808.2027805088813 0 0 0
262 1 2 0.0 -374.94586243166634 723.0436433697039 808.3146747920003 0 0 0
264 1 2 0.0 -373.1265589358221 723.1702942575989 808.3620068066467 0 0 0
265 1 2 0.0 -372.38835321456247 723.5501759031386 808.767013190353 0 0 0
23 1 2 0.0 -354.5397304894713 723.8351220056916 808.3285688242607 0 0 0
74 1 2 0.0 -351.8986483208416 724.1672633298808 808.2742213783444 0 0 0
260 1 2 0.0 -376.47209430414756 724.0006736347639 808.382841240056 0 0 0
401 1 3 0.0 -353.8597855612064 724.6487723899907 808.8708763709182 0 0 0
259 1 2 0.0 -376.4113223124735 724.9255369008913 808.6649536913799 0 0 0
69 1 2 0.0 -347.9367888033157 726.0673665975784 808.6828592629349 0 0 0
258 1 2 0.0 -375.53815109107853 725.5125931250024 808.7540784143017 0 0 0
358 1 2 0.0 -373.0304350972929 703.9480883215152 809.1132576604775 0 0 0
359 1 2 0.0 -372.63588846175463 704.3025561137492 809.9192952267097 0 0 0
362 1 2 0.0 -373.5298284606372 705.5650260420667 810.1328278124223 0 0 0
360 1 2 0.0 -373.2255062544297 704.0298895628899 810.7687756458474 0 0 0
361 1 2 0.0 -373.8109867378968 704.8385122009771 810.6393433607234 0 0 0
371 1 2 0.0 -371.22099321250283 707.7721718350282 809.5560857840123 0 0 0
437 1 3 0.0 -372.05393573778844 708.0961401027444 809.8088625893521 0 0 0
324 1 2 0.0 -371.3987543721637 709.745636113028 809.4308263214035 0 0 0
434 1 3 0.0 -370.6412273293836 710.1786469604554 810.0175994407888 0 0 0
306 1 2 0.0 -367.4217689914768 713.8045367798195 811.1720138845045 0 0 0
93 1 2 0.0 -363.6625451151675 717.4733779630693 809.7046145173898 0 0 0
92 1 2 0.0 -362.7452590517677 717.6950600869013 809.3739102715411 0 0 0
91 1 2 0.0 -361.8002084121872 717.8229296231871 809.0776681912844 0 0 0
87 1 2 0.0 -358.533026990424 717.1449563619789 810.0087936423246 0 0 0
90 1 2 0.0 -360.91042971403067 717.8435965420614 808.761469772476 0 0 0
89 1 2 0.0 -360.38238021191006 717.4087304264993 809.4856197259105 0 0 0
88 1 2 0.0 -359.4738844015459 717.3149173990249 809.708945941032 0 0 0
295 1 2 0.0 -367.0705855588166 720.709200592382 809.5269328580483 0 0 0
25 1 2 0.0 -355.3842382389189 724.1756194921128 809.9357130887587 0 0 0
24 1 2 0.0 -355.1134050999964 723.6801489882674 809.1246912799302 0 0 0
408 1 3 0.0 -353.185331768889 724.6380990028653 809.5312473117137 0 0 0
76 1 2 0.0 -353.30161528944484 723.6755707631327 809.3886322532321 0 0 0
75 1 2 0.0 -352.8380080315415 723.8887313837038 808.5974172026598 0 0 0
26 1 2 0.0 -354.9395087163301 724.4769050066636 810.7971117933618 0 0 0
68 1 2 0.0 -347.3172903111582 725.952310447128 809.343073905408 0 0 0
257 1 2 0.0 -374.83415212402224 726.0801903019161 809.2283345843742 0 0 0
256 1 2 0.0 -374.4317697171654 726.9273837585705 809.0375396662527 0 0 0
255 1 2 0.0 -373.83140714780956 727.7275628727252 809.0331191708434 0 0 0
254 1 2 0.0 -373.05847900332816 728.2467078736686 809.0937953927237 0 0 0
436 1 3 0.0 -372.253644261209 704.8339478013435 810.621337084285 0 0 0
439 1 3 0.0 -371.6949267546047 704.0392885720092 810.6946881462701 0 0 0
372 1 2 0.0 -370.5419777075251 707.6390640887795 810.3659376364109 0 0 0
433 1 3 0.0 -372.1763019455477 708.8014656833697 810.422291005107 0 0 0
323 1 2 0.0 -371.2756795212671 709.1146004735505 810.1156425083698 0 0 0
432 1 3 0.0 -369.9007828778895 709.9360919447402 810.6189130911309 0 0 0
308 1 2 0.0 -367.96308147567345 712.1655591949713 811.9740735407283 0 0 0
307 1 2 0.0 -367.5398773567324 712.9930855649586 811.6209744461123 0 0 0
305 1 2 0.0 -366.94588965626014 714.4387834844209 810.7006093685239 0 0 0
304 1 2 0.0 -366.8490771169603 715.2856411231362 810.31327785652 0 0 0
303 1 2 0.0 -366.3255029197311 716.0447016302392 810.19818671752 0 0 0
302 1 2 0.0 -365.6369009104754 716.6927576953876 810.0975536067205 0 0 0
301 1 2 0.0 -365.22360636898986 717.5750401336044 810.2420590686096 0 0 0
86 1 2 0.0 -357.9549157996186 717.4500862826181 810.7947973869651 0 0 0
300 1 2 0.0 -364.7541712553511 718.4764559021435 810.0422876983513 0 0 0
296 1 2 0.0 -366.72929641649665 720.790371660776 810.3661401954289 0 0 0
297 1 2 0.0 -365.9237397091322 720.6652613547255 810.9351604559574 0 0 0
77 1 2 0.0 -353.7046941576498 723.5514489490618 810.2260501922359 0 0 0
27 1 2 0.0 -354.24945676066966 725.0889702737619 811.1679703761997 0 0 0
67 1 2 0.0 -347.3467346883621 725.757017880892 810.2948545920435 0 0 0
377 1 2 0.0 -371.4617461920755 703.6499524224885 811.5515748844394 0 0 0
376 1 2 0.0 -370.87811464439307 704.4297323010969 811.6534608644054 0 0 0
375 1 2 0.0 -370.42065360324636 705.2389216501252 811.9610796846379 0 0 0
374 1 2 0.0 -370.63164503552804 706.1256933064165 811.5248737700375 0 0 0
373 1 2 0.0 -370.62656268989736 706.9957198717503 811.0354332839231 0 0 0
322 1 2 0.0 -370.612343304001 709.1683295879462 810.888750559945 0 0 0
321 1 2 0.0 -370.24836854277544 709.877845989595 811.4681614950807 0 0 0
310 1 2 0.0 -368.6697515892368 710.7711343605234 812.3924508083933 0 0 0
309 1 2 0.0 -368.6306091979281 711.486106492475 811.8017032266982 0 0 0
85 1 2 0.0 -357.2555552005507 718.0355244498879 811.0941008157913 0 0 0
84 1 2 0.0 -357.3435520490244 718.9517940490329 811.3696251425515 0 0 0
298 1 2 0.0 -365.1115534191688 720.1606107283811 810.7803621141325 0 0 0
299 1 2 0.0 -364.9809935217535 719.3542879957408 810.3592379689625 0 0 0
82 1 2 0.0 -356.53411956159175 720.6246906303261 812.0830039459319 0 0 0
81 1 2 0.0 -355.9522751241988 721.336061169419 812.2129330451901 0 0 0
78 1 2 0.0 -354.04942108018923 722.9966211199148 810.9375107779573 0 0 0
406 1 3 0.0 -348.08138386944415 725.3785351424416 812.6825472887601 0 0 0
28 1 2 0.0 -354.1539373464739 726.0446737515947 811.2706118543131 0 0 0
65 1 2 0.0 -348.39952317207127 726.3163752014101 811.5674856148497 0 0 0
66 1 2 0.0 -348.14680450157783 726.1551259923095 810.7068831080151 0 0 0
64 1 2 0.0 -348.84715103514185 727.0262726162496 812.0992742381065 0 0 0
383 1 2 0.0 -374.6605546129368 700.039122229769 812.243857798541 0 0 0
382 1 2 0.0 -373.760780586373 699.8201350119715 812.5487989350214 0 0 0
381 1 2 0.0 -372.96347658022717 700.2829284577824 812.2751094799376 0 0 0
380 1 2 0.0 -372.8507595099393 701.2627120826038 812.297268724434 0 0 0
379 1 2 0.0 -372.34985127960124 702.0041560446315 812.0111408991945 0 0 0
378 1 2 0.0 -372.0010723047576 702.8654009113682 811.7852089990856 0 0 0
438 1 3 0.0 -370.4414744242965 707.833722511677 811.4779826032661 0 0 0
394 1 2 0.0 -371.75299229049733 707.6621081440586 813.6804356711649 0 0 0
311 1 2 0.0 -368.81521339041717 709.9688552477924 812.8377933679214 0 0 0
320 1 2 0.0 -369.8610065901679 710.6035711946378 812.1059234716723 0 0 0
83 1 2 0.0 -357.14436808339946 719.8343127739324 811.7438910061209 0 0 0
80 1 2 0.0 -355.1783999621106 721.9109107752192 811.9865119250429 0 0 0
79 1 2 0.0 -354.49353795731105 722.4003270110052 811.5639707220464 0 0 0
29 1 2 0.0 -353.4866849237749 726.1013713912346 811.9437985322701 0 0 0
407 1 3 0.0 -347.6791772336354 725.8193668939032 811.8918273495199 0 0 0
63 1 2 0.0 -349.52017664244516 727.6174264450706 811.9003552461272 0 0 0
384 1 2 0.0 -375.42114426096197 700.5948772991238 811.8557859433873 0 0 0
385 1 2 0.0 -375.7300454640909 701.4715243988517 812.2451091645974 0 0 0
386 1 2 0.0 -375.72256907627883 702.3968370474696 812.6578321452204 0 0 0
387 1 2 0.0 -375.9684604118356 703.3329843997928 812.7551971900845 0 0 0
388 1 2 0.0 -375.6596895466088 704.2377689364454 812.7751835104896 0 0 0
389 1 2 0.0 -375.03012296136467 704.7592493426357 813.2636496876008 0 0 0
390 1 2 0.0 -374.2263938954607 705.3152657909911 813.2841063113008 0 0 0
391 1 2 0.0 -373.384487412191 705.7023699701477 813.129556337205 0 0 0
392 1 2 0.0 -372.54997623427266 706.1428951646847 813.0699268992864 0 0 0
393 1 2 0.0 -372.1532172130381 706.8459799544645 813.5020594630608 0 0 0
440 1 3 0.0 -370.1362942862065 707.6326657105071 812.3618720733718 0 0 0
395 1 2 0.0 -370.8676966015864 707.3560397223492 813.505574072028 0 0 0
396 1 2 0.0 -370.07244731948754 707.0942494934338 813.1233330146966 0 0 0
312 1 2 0.0 -369.04076822967176 709.2518318692582 813.4000622476583 0 0 0
319 1 2 0.0 -369.96207390304284 711.2280658400476 812.8578375782572 0 0 0
56 1 2 0.0 -349.5240391363256 725.7924921904114 813.1632195949851 0 0 0
30 1 2 0.0 -353.3687801335952 726.0031644728174 812.8967413638951 0 0 0
57 1 2 0.0 -350.5543262332227 725.8347686237829 813.3307872546465 0 0 0
55 1 2 0.0 -348.61134538229095 726.0915693550407 813.0127614411357 0 0 0
58 1 2 0.0 -351.3905590297734 726.2232113479295 813.0298786665456 0 0 0
54 1 2 0.0 -347.9389136039376 726.3279662326536 813.7316214027243 0 0 0
59 1 2 0.0 -351.9299503583535 726.7119730080718 812.3466924114496 0 0 0
53 1 2 0.0 -347.1996870811795 726.8958249641254 813.6050128335061 0 0 0
60 1 2 0.0 -351.6525757049124 727.2283297054364 811.629516484842 0 0 0
52 1 2 0.0 -347.06246782657587 727.8348026176361 813.6709511260691 0 0 0
61 1 2 0.0 -350.9285618124655 727.8273387417306 811.3844050982367 0 0 0
62 1 2 0.0 -350.2830777483117 728.2252447540254 811.9979140080413 0 0 0
51 1 2 0.0 -347.14776198570814 728.6888498482172 813.2858779348213 0 0 0
50 1 2 0.0 -347.26313474111015 729.6136167903583 813.0685425850872 0 0 0